6
Lattice="4.176061503267817 -6.614502966865821e-10 7.368507351770368e-10 -6.614512962765171e-10 4.17605128097604 2.9627083395853164e-11 7.368518187574343e-10 2.9627083392671744e-11 4.176051281014269" Properties=species:S:1:pos:R:3:forces:R:3 spacegroup="_JSON {\"number\": 224, \"setting\": 1}" unit_cell=conventional energy=-185323.20072441705 stress="1.429763467545401e-05 -5.289239961336465e-10 5.716200916359047e-10 -5.289239961336465e-10 2.775428566313051e-05 1.1141426473211802e-10 5.716200916359047e-10 1.1141426473211802e-10 2.775421437819764e-05" free_energy=-185323.20072441705 pbc="T T T"
Cu       1.04401560       1.04401155       1.04401313       0.00000221       0.00000317       0.00000257
Cu       3.13204761       1.04401433       3.13203844      -0.00000225      -0.00000231       0.00000026
Cu       1.04401538       3.13203847       3.13203846      -0.00000137      -0.00000080       0.00000014
Cu       3.13204493       3.13203868       1.04401256       0.00000295       0.00000158      -0.00000276
O       -0.00000026      -0.00000023      -0.00000001      -0.00000077      -0.00000081      -0.00000012
O        2.08803050       2.08802541       2.08802563      -0.00000077      -0.00000083      -0.00000010
